% Model:              zahra.mph
% Version:            COMSOL 5.3.1.275
% Date:               May 12 2020, 02:02
% Dimension:          3
% Nodes:              5948
% Expressions:        4
% Description:        Temperature, Mach number, Pressure, Density
% Length unit:        mm
% x                       y                        z                        T (K)                    hmnf.Ma (1)              p (Pa)                   hmnf.rho (kg/m^3)
-25.4                     -50.8                    -25.4                    272.38728199862396       1.5935766973266012       96795.86923869554        1.2381923069019403
-25.399999999999995       -47.56463881754976       -21.768830284960703      272.36167561778615       1.593088557276504        95832.50306377796        1.2259843817731417
-25.399999999999995       -50.8                    -20.319999999999997      271.7927875958942        1.5888004799054227       94843.78748581577        1.2158753784832042
-21.56774298436593        -50.8                    -22.072650241605523      271.7307335609317        1.5770437237632675       94349.92382513091        1.209820379437957
-20.319999999999997       -50.79999999999998       -25.39999999999999       271.7505718333469        1.5920761020894372       94846.97875378864        1.2161051793128628
-17.738612343214356       -50.8                    -21.692349212664016      271.70630918063347       1.5468514575833388       93445.18379885878        1.1983268842405044
-19.774749701741595       -48.235058133756944      -21.1331295657425        271.594013154663         1.5847778363138043       93474.94741633117        1.1992041986126831
-20.707915499718137       -50.8                    -17.590063890812058      271.8027721869911        1.5322528375177444       93298.32297928008        1.196018944621076
-21.5467220567707         -47.46892432831921       -25.400000000000002      272.5627898152592        1.5882635635897022       96129.97714913652        1.2288825477569003
-25.39999999999999        -45.71999999999999       -25.39999999999999       273.3037758155724        1.5878275470359962       97899.78892775376        1.248113920552701
-25.399999999999995       -47.19666816259052       -17.55971786748745       271.8024441764848        1.5959181120446664       94104.9765489277         1.2063611324214578
-25.399999999999995       -50.8                    -15.24                   271.7925432939591        1.575313486926385        93555.99317885701        1.1993672319296904
-21.810887060268822       -45.67011626751388       -20.573909918820984      272.24748032655293       1.5896962766484535       94618.09384151483        1.210956182540933
-25.399999999999995       -43.08215663192646       -20.75725604262319       273.2537646266755        1.5873221136470077       96732.01864667106        1.233451848682504
-21.7543324851936         -46.04284625466267       -17.545965461572035      271.59943797708917       1.5897732893550265       93068.49726650582        1.1939659400468374
-17.64797807244545        -47.082218792891204      -25.400000000000002      272.11284877298647       1.589454863700347        94953.53927133467        1.2158505942719466
-18.540206868165793       -45.31826089580093       -21.690157784331216      271.8512013433866        1.592756870872484        94014.39691706985        1.2049838082728088
-15.239999999999993       -50.79999999999998       -25.39999999999999       271.6533818019487        1.5598252494115477       93703.25346250876        1.201870450415626
-15.220720998200541       -50.8                    -17.06663189777406       271.7820871423614        1.491074375655514        92017.30289344676        1.1796869451098049
-15.461106150149863       -47.287796858739         -20.2128112996829        271.758400684048         1.5456654559595007       92858.02238206689        1.190568959411799
-12.70043817976208        -50.8                    -21.046633046684537      271.6828563112322        1.506711888771186        92231.44880594827        1.1828642317924754
-19.269609022731068       -46.06562842869979       -18.209238819620897      271.681594451916         1.572330846929881        92953.05647422954        1.1921243550126794
-13.527347295586376       -46.988309367747256      -17.74444829399909       271.7949655895601        1.51295377917857         91991.26837321432        1.1792972942203774
-16.728330985193324       -46.461140589885694      -15.84456772042081       271.7003219509788        1.530811671311107        91930.38036943536        1.1789272529349817
-17.43351958766027        -50.8                    -13.583427231490175      271.77146009738084       1.5004269117022697       91556.29629675577        1.1738226127211513
-21.697777910118386       -46.41557624181146       -14.518021004323087      271.62635225730514       1.561639876269303        92394.9123181054         1.185207141067889
-21.44197569406837        -50.8                    -12.014005124105296      271.76354262197145       1.5379238221015858       91890.26010472931        1.1781386098631332
-25.399999999999995       -46.56632979208737       -12.580556320146153      271.584903361356         1.591947042232696        92720.0194552401         1.1895590140702001
-19.44665969098105        -48.40876881745186       -9.571415623767129       271.4012006825898        1.5250146092170522       90374.59200746921        1.1602529687213479
-25.39999999999999        -50.79999999999999       -10.160000000000002      271.6941251104854        1.5723730905146291       92201.41700420887        1.182430030708064
-20.74930207831404        -42.919466893510325      -25.400000000000002      273.69597566177623       1.5816360091300696       97585.62882707336        1.242325948767586
-25.399999999999995       -40.64                   -25.399999999999995      274.80479489944014       1.5786546590894917       99903.52777311852        1.2667024813492
-21.626506981471543       -40.43326350164629       -20.068122797652226      273.04950084447984       1.5857721527780833       95825.80762863535        1.2228106274723842
-21.269347938871398       -50.8                    -7.266873008640145       271.5324137326017        1.5319003031533882       90290.63329719786        1.1586149344812495
-25.399999999999995       -37.82259480683973       -20.93579753211403       274.96932344529057       1.5766334443616592       99120.48143859564        1.2560220420866293
-25.399999999999995       -42.91699490144063       -14.891691029712637      272.3942523640354        1.5906964820599578       94242.49416149277        1.2054992238136424
-21.662142445794963       -43.424419871728865      -17.29307190098766       271.95885489565046       1.5935395963808252       93651.42039160269        1.199856387959586
-22.98371006018421        -44.26173959983496       -11.424275964950715      271.13536918393464       1.5754652849387296       91176.9105103935         1.1717010016660394
-25.399999999999995       -39.13452565009123       -17.283738429841975      274.16176706361          1.5806571977188733       97279.4300762797         1.2363238013314068
-10.098907229943292       -50.8                    -16.623614942839925      271.86938132991037       1.4782319403537578       91366.16978511435        1.1709631370926634
-17.19554147184371        -50.8                    -9.5946691769549         271.6966002523376        1.4970592384733783       90343.12251884303        1.1585879202316247
-15.374751230271244       -48.21724216051619       -11.84269708441335       271.5263522038979        1.4905024043384536       90359.64222569436        1.1595263458558152
-12.753946640305712       -50.8                    -12.209070027667982      272.07135248991915       1.4597319133798747       90715.11257745852        1.1617560200149588
-13.171414064614726       -50.8                    -6.778123625194218       272.5682623475618        1.440463038672345        90592.84302743447        1.158075054679582
-20.95141695464217        -37.49969396343316       -25.400000000000002      274.85616369765245       1.577319761222194        99431.50452825784        1.260481957651132
-25.4                     -35.559999999999995      -25.4                    276.30581398330827       1.569716842997425        101907.26661848319       1.2850890790809677
-15.269526676062771       -44.966405524087975      -22.80640564984145       271.9274390575293        1.5760877692001989       93930.25190921545        1.2035677930551698
-15.077947201975677       -42.645014189436964      -25.400000000000002      272.49118045339173       1.5903156319190828       95434.90478346434        1.2203176634413144
-17.72094357480694        -41.34040263587747       -22.389494776340634      272.58580269050447       1.5893857557572841       95260.59781550143        1.217665982642256
-17.220113029076238       -38.90521155427693       -25.400000000000002      273.5918639642792        1.583058424795343        97299.94321614924        1.2391603590778841
-11.804566154472237       -47.58816002397716       -20.20961566727688       271.8503853949127        1.5116605956183344       92373.25247323519        1.1839527911180585
-12.6261709178573         -46.465723855870955      -25.400000000000002      271.9636616831388        1.5622527558140618       94092.8488279036         1.2054906359731168
-13.041203521966615       -44.76947758558039       -20.981510906438768      271.97678384471686       1.5445467174422736       93190.40621279365        1.1938711956884849
-10.159999999999993       -50.79999999999999       -25.399999999999995      271.3364244686188        1.5445901983023276       93072.69924714096        1.1951772415484283
-7.619999999999985        -50.8                    -21.00059094877504       271.51374705374707       1.5168401934537659       92229.41281140612        1.1835748375588475
-10.0817850133581         -48.18801068020706       -22.674783040554672      271.40960520739634       1.5301033859731097       92512.3240974517         1.1876609614745623
-5.079999999999996        -50.8                    -25.4                    271.1545577588303        1.5560236951429618       93097.31462925565        1.1962951679331904
-7.619999999999977        -46.40059094877504       -25.4                    271.0550271921657        1.5606519443382687       92988.34837050458        1.1953337194694735
-8.739938182759204        -47.74315943247864       -15.561373552529323      271.3052616874756        1.4769959385915847       90343.59119681647        1.1602651201334535
-5.053451225731919        -50.8                    -16.68780907506893       271.8260306441334        1.4769952800488897       90975.31174074965        1.1661397849621797
-11.593588441022886       -46.68882187675552       -15.276085288315274      271.60768906987886       1.4793318969438471       90861.94113838376        1.1656228528956762
-25.399999999999995       -42.36529955421501       -9.916517773043925       271.52233544039484       1.5859286150299827       92649.9966343172         1.1889345581859756
-25.4                     -46.40059094877504       -7.619999999999992       271.80849076450806       1.57115194007581         92385.67442446915        1.1842945145292272
-21.69777791011839        -46.01753763490372       -9.548162070579355       271.1070528677562        1.553092114360293        90409.94029170583        1.161966131930967
-17.009827104312382       -50.8                    -4.479144945646092       271.9543619891537        1.4717179214313099       89946.1298457609         1.1524034657729256
-18.23704080802887        -47.66268039599279       -7.017087816103502       270.9752893293392        1.5046052819647737       89081.80546139534        1.145453398484378
-25.4                     -50.8                    -5.080000000000003       272.1189221632602        1.554968816596434        92089.91634743894        1.1791564736337055
-21.818520404014436       -47.03163567238391       -7.318543908051748       270.9671456960126        1.54578339055833         89671.08354960225        1.1530652508511696
-22.07889523806072        -45.23058059982196       -4.789617457394142       270.56144735200166       1.54141049003395         88775.34698442483        1.1432588401769777
-22.09778508431492        -39.801747146078014      -15.320858767602257      272.3985934212079        1.5846244381916816       93811.78382273577        1.1999706856160228
-12.813716787934492       -50.8                    -2.129598476165624       272.88470564568877       1.4159364996002508       90298.06334663728        1.152968238640859
-14.039234082955302       -48.196377056114855      -4.275363066313941       271.5218707663359        1.4413425643630335       89088.75210499816        1.1432367106361914
-16.987652187898536       -50.8                    0.2505051217303162       272.2107548857693        1.4505693738171546       89603.5692212973         1.146933222360648
-19.402215458792632       -37.64203216739963       -22.389494776340634      273.2541406367288        1.5805721447260916       96488.30498022283        1.2303425075890353
-21.071974106106207       -34.41041314920446       -22.191926549258163      274.32556528606426       1.571492843616969        98073.34980832778        1.2456694968361748
-21.115143767178733       -32.83089182623114       -25.400000000000002      276.7121977755971        1.5635838183389197       102266.11977429233       1.2877204052761029
-21.626506981471543       -36.44996682459116       -18.234641440538148      273.63318997301127       1.5757927661972129       96126.022223944          1.2240250365015575
-25.399999999999995       -32.9572445717246        -20.984348149665085      276.8179473649069        1.5643372688817605       101795.36890173514       1.2813031087690598
-25.399999999999995       -30.47999999999999       -25.399999999999995      278.775729984615         1.551342079299169        105517.1709392128        1.3188222945093235
-21.000590948775052       -50.8                    -2.540000000000006       271.2920479741338        1.5063855919880444       89306.6829177778         1.1470041733086036
-18.27713234360599        -48.094697493153774      -1.9009012599283275      270.7991569625395        1.4768975311193275       88342.43599030377        1.136685096336745
-20.13956554649454        -47.66268039599279       -3.4897532276260543      270.74171309247623       1.5090985986190797       88534.71100704424        1.1394007598231717
-21.000590948775052       -50.8                    2.5399999999999974       271.0356517573929        1.486083893178748        89125.39149789793        1.145758618015885
-22.472218791449805       -48.094697493153774      0.33867121289471763      271.1776188345174        1.504843268676672        89786.2817577903         1.153650469584966
-25.4                     -50.8                    -1.6653345369377348E-15  271.76758616783167       1.5333359992447801       91750.99388473463        1.176335554474153
-22.33927007210701        -43.445330173100295      -7.178012114148015       270.57289998549527       1.555485648971941        89411.09496356727        1.1513973360453464
-25.4                     -46.40059094877505       -2.540000000000006       271.7202069291187        1.5446807171403312       91715.48627205937        1.1760853484901441
-25.4                     -42.245660066057475      -5.053219390685313       271.30377508649474       1.5639821406973138       91626.23613528545        1.1767443267973106
-25.4                     -50.8                    5.079999999999996        271.3012482435554        1.5141702420174374       91433.20217123118        1.1742761525242844
-25.399999999999995       -35.115563277816214      -17.09029332839503       275.70461559383324       1.5704935077290065       99481.403027718          1.2572335682918003
-22.74291338419144        -36.203675814748365      -13.704442739723177      274.0163438324779        1.5736242998365777       95649.8821259861         1.2162590229177808
-25.399999999999995       -37.75820606619149       -12.609531920094998      274.3644276233389        1.578200622401861        96733.98986654406        1.228483708401425
-25.4                     -38.311238755992896      -7.352964581847827       272.2198620699728        1.5705293742078794       93280.92774959852        1.193963775120277
10.160000000000002        -50.79999999999999       -25.39999999999999       270.7947199807085        1.577955672726288        93162.49157839316        1.1987234633556723
5.080000000000003         -50.8                    -25.4                    270.21601438204704       1.5738555749328447       92345.43769081059        1.1907551359324609
7.358438330736973         -50.8                    -21.079868744310886      270.71740249302474       1.5447633232532054       91776.60371755014        1.1812284843344367
7.261706086569987         -47.05021233680005       -22.12274132427441       270.98164092905785       1.5469819622781928       91950.16599300521        1.1823083384384698
2.5400000000000005        -50.8                    -21.000590948775056      271.0987014156139        1.5355914765956589       92045.7416605274         1.183026212307915
7.610084100363819         -46.4064858167354        -25.4                    270.73556915724834       1.5856496405383689       93189.75580266105        1.1993362486560137
15.24                     -50.8                    -25.399999999999995      271.5330289966594        1.577434021302189        94612.38988729798        1.2140692286894832
12.429518999813688        -46.33930670338339       -25.4                    271.5294103135397        1.5862428652682965       94150.25437715332        1.2081551918834315
12.053974723883812        -50.8                    -20.938926026912956      271.49364405667853       1.5466488665976166       92809.98710037956        1.1911135051354766
-7.298484648394507        -50.8                    -12.047245331187705      272.42561405991734       1.4356007345266517       90371.67351560124        1.155852693704656
-14.515714219064176       -46.17977481931523       -8.437295170577928       270.89662737779605       1.4710334054244567       88829.85138109507        1.1425453328158133
-10.893089102373422       -46.95856143881352       -10.66618064245577       270.97883519593864       1.4268323987386389       88356.03656395459        1.1361062732284315
-9.303942678585326        -50.8                    -8.528512032245859       272.89194171801995       1.41132165405028         90345.85075250316        1.153547822186205
-8.016771968265052        -46.49732629096237       -10.222748711730059      270.93856426220134       1.3976275805317577       87257.52539060797        1.1221480793708083
-11.035872617891577       -46.72506531759806       -5.398266199997134       271.00550054581066       1.421330063000874        87638.45798513322        1.1267685717427656
-8.914664947355098        -50.8                    -4.457519489490067       273.0189662540505        1.3913396547833434       89661.70886601649        1.1442799733222762
-4.898071036001737        -50.8                    -7.451850798109915       272.83441183857565       1.3896832804199841       89279.7439485178         1.1401759958030195
-16.910457757256346       -35.09977210066741       -25.400000000000002      274.5577138943978        1.573076870882362        98802.34576179508        1.253867682619896
-14.790355392634787       -37.17939980919472       -23.249860109420286      272.07416873312405       1.5830273795537009       94644.728666551          1.2120686623305306
-10.621300893783365       -42.25115831242178       -21.750210513194627      271.63680228353775       1.5436291802391888       92915.94802908594        1.1918449382223377
-12.597117866595807       -37.779345539953326      -25.400000000000002      272.1574669671239        1.5845491523057618       94965.27204190941        1.215801474457979
-13.63454376961769        -40.60882595967578       -21.099720218840577      271.67632502545626       1.5618027474838103       93210.07454598257        1.1954438020148825
-9.968832040843152        -42.09690064132017       -25.400000000000002      272.0126919426231        1.5658969502532594       94215.3691449206         1.2068427586920174
2.540000000000006         -46.400590948775054      -25.4                    269.7666993075472        1.5830342408112723       91898.74272159768        1.1869688856867275
1.6653345369377348E-15    -50.8                    -25.4                    270.67475417329          1.5654357601340718       92733.00212197287        1.1937260519117812
-2.5399999999999974       -46.400590948775054      -25.4                    270.1466699478371        1.5746100869225008       92167.53205141949        1.1887661866126564
-2.5399999999999947       -50.8                    -21.00059094877505       271.33188034395846       1.5282658756173044       92254.02819352069        1.1846842565591
-4.951610960858076        -47.411103607157074      -16.9319933035726        271.16910087809964       1.4827810562420263       90096.5941195541         1.1576739902671738
-2.5707979338905385       -50.8                    -12.198823886756276      272.54790869309187       1.4175501058284974       89396.15972658404        1.1428628404808838
-0.046585219008935475     -50.8                    -16.64896196789628       271.9858291281325        1.4572655336408917       89971.9450204652         1.1526008492324702
-7.608058017949042        -43.89349066516779       -22.400700807548677      271.1987509782115        1.5459544778728045       92496.21824865931        1.1883774301006929
-5.031042531812352        -42.12831341361255       -25.4                    270.687102222132         1.5806765517411743       92902.24277969493        1.1958500855674359
-7.865576591114772        -40.956847360290766      -21.938414543868653      270.7101679917069        1.561087076946355        92165.0556887008         1.1862598313200685
-4.969286128196666        -47.07904778183549       -20.42690692535444       270.67951336450545       1.5292792751995372       91335.48565089144        1.1757155402200574
-4.16583692759773         -44.65343430664306       -22.65769680106524       270.3900965505928        1.5538025231753887       91697.10523029539        1.1816339166718637
0.11071387180332637       -47.07904778183549       -20.426906925354448      270.7620366920327        1.5162249891641226       90544.7671131976         1.1651817857486924
-1.7366026617223644       -46.63458832137325       -16.671322468639612      271.16124537411696       1.4671574688525195       89129.17024593247        1.145276493075463
-3.5839191952480562       -46.190128860911         -12.915738011924779      271.57738488817          1.4190715227196855       87768.94171763974        1.1260699342176648
-0.7236158372464173       -45.41337794811833       -22.914692794581804      270.09402436219204       1.556730467075817        91287.51272943894        1.1776452959170172
4.504108907407673         -45.49423433125224       -21.005548276393384      270.76009062775825       1.525789158250236        90706.65208413432        1.1672734036437722
4.6326390150114065        -50.8                    -16.675888970457176      271.6508557618557        1.47145787836959         89987.10181992842        1.1542165324710356
2.291323714099118         -47.386493319350095      -17.40946723927545       271.1422505046393        1.4740565444737899       89217.50483151613        1.1464918713109638
1.2522272295890633        -47.5402160881074        -14.370905550453148      271.7422885815777        1.4211909803384186       87801.14332451436        1.125799485437852
2.475649297974478         -50.8                    -12.17295855360614       272.64720633407876       1.4033397226225002       88572.40659380362        1.131919381352901
0.2131307450790088        -47.693938856864705      -11.332343861630845      272.1813925011921        1.396685139243199        87597.75413972797        1.1213795797513415
0.03236347113236218       -50.8                    -8.358241919394004       273.13815675095617       1.3864824485437028       89019.630445227          1.1355898863423664
4.471933556394909         -47.693938856864705      -14.392027553196456      271.52246431724564       1.4320266885041528       87890.24254983448        1.1278542999723107
6.9133280727761575        -47.693938856864705      -18.84548264854883       271.24817034168456       1.5003455617298256       90378.59050527931        1.160958912489437
13.050676130373962        -44.8826150564929        -22.704769117649757      271.64708337794156       1.565138359564042        93515.85991925326        1.1994946866953493
9.577841657688833         -50.8                    -16.808125384594458      271.4227689729438        1.4913635674628554       90435.50803638717        1.1609427645687427
6.872259627237522         -50.8                    -12.329835422421992      272.3086993516698        1.4293365632850827       89180.2732228975         1.1411044158818444
4.7438279440210085        -50.8                    -7.445117387082828       273.45083396007124       1.368423191156275        88370.82844119983        1.1260243377614607
3.000471443813513         -47.209404597816146      -9.99719763563365        272.323725305875         1.3769767791635519       86820.36432769104        1.1108469520827724
9.462098499402304         -47.693938856864705      -14.55123905061411       271.21054924422026       1.469017879856966        89106.677106852          1.144779315252833
10.44643572606276         -46.33725207785208       -20.698606037403742      271.47967737562334       1.528310577714372        91742.38099794932        1.1774725356773843
13.561865054352626        -50.8                    -17.177529012213693      271.2214483980016        1.5224426834192866       91646.97812187627        1.1773679839413496
11.96344110925026         -47.75255570075484       -16.61638693082329       271.1456193814399        1.5075688244451941       90648.7529074785         1.1648696887931207
17.482573902361068        -50.8                    -20.7490398446084        271.7686171099449        1.5445111380097503       93945.28960595762        1.2044639566351627
15.577203581647652        -47.112961704801215      -20.37928903995396       271.3136395100198        1.5543361900321389       93020.41205615245        1.1946061192459616
17.334739288905595        -50.8                    -15.030902236621904      271.1665121368637        1.520744634948625        91766.67111496825        1.1791444899989862
15.57905252649603         -47.67054836687828       -16.66268587041853       271.01242505390684       1.5288398037041881       91592.59509373269        1.1775768654724563
20.319999999999997        -50.8                    -25.399999999999995      272.13474186114786       1.5750098874802665       96153.40841121273        1.23111549561352
19.18675148972991         -47.70694505624275       -21.42261081073394       271.6575420367389        1.5585211865694442       94298.29127260948        1.209484089247261
25.4                      -50.8                    -25.4                    272.60393810687367       1.5816223446740825       97670.82476013193        1.2483915857643872
22.164796182282267        -47.16883028882124       -25.4                    272.43818254973564       1.5834564972228475       96896.31911474794        1.2392456647486179
22.04961903834894         -50.8                    -21.54068340732836       272.0505138003281        1.5575623302735937       95371.34392035472        1.2214802669373346
21.614288862911394        -50.8                    -17.575188872138412      271.6094948662571        1.542290855280604        93799.24610924859        1.2032960838006495
17.682404205842353        -46.15698995691853       -25.4                    272.2481855362643        1.5850254487798099       95941.13646960755        1.22788577434101
25.4                      -47.53499730493488       -21.733138106159654      272.5111116138307        1.5681760702304732       96860.74395899981        1.2384591563682665
25.400000000000002        -50.8                    -20.319999999999997      272.2687825651555        1.5736497040240918       96391.41967735851        1.2335553197958626
25.39999999999999         -45.71999999999999       -25.39999999999999       273.36949471561724       1.5786963439134278       98582.17143180921        1.256511399998429
-22.107910033831587       -38.83979345562414       -9.693480661989152       271.0149898149621        1.5655971703062688       90525.36257841364        1.1638447822449784
-22.33927007210701        -43.42952552726002       -2.260691006736537       270.5855417775128        1.5272168474914762       89066.64751292573        1.1469081048361776
-12.287401070666514       -47.428262244294345      -1.6905308129645833      271.36702482369753       1.41647113609978         87890.07315568811        1.1284981618335332
-13.831383800585431       -48.196377056114855      0.47382652283787213      271.70324039892336       1.419721350517104        88473.10102381668        1.1345784622578596
-12.755713499874988       -50.8                    2.720255553109409        273.0193546463032        1.3959972192443861       89594.76672560813        1.1434240182352584
-8.91926404683951         -50.8                    0.18817318412294606      273.1415417073259        1.372722155975752        88994.07455438476        1.135249810506721
-8.222682141907821        -46.482989068821524      -1.666928448607632       271.1310013913953        1.382889889413657        86241.13715636358        1.1082899615067032
-4.715514842393978        -50.8                    -2.221213381072601       273.28507821261076       1.3461092186306494       88283.31049917966        1.125591472712481
-16.840805050912046       -50.8                    5.151907773458321        272.0576765931674        1.431541684666017        89430.49491100843        1.1453619533442436
-16.364692371161865       -46.48924724911379       3.2532963125186          270.812647966078         1.4351923402727025       87453.5561992601         1.1251919952016818