% Model:              zero-angle.mph
% Version:            COMSOL 5.3.1.275
% Date:               May 12 2020, 00:31
% Dimension:          3
% Nodes:              18527
% Expressions:        4
% Description:        Temperature, Mach number, Pressure, Density
% Length unit:        mm
% x                       y                        z                        T (K)                    hmnf.Ma (1)              p (Pa)                   hmnf.rho (kg/m^3)
25.4                      50.800000000000004       50.800000000000004       293.217534135725         1.5999898479536006       45392.80318929121        0.5394052500332152
19.82808843971607         45.98703590295824        50.800000000000004       293.21175865093215       1.6000248660641805       45393.3276737415         0.5394221074702895
18.14285714285713         50.800000000000004       50.800000000000004       293.21461635158107       1.6000148955059064       45393.66978307539        0.5394209155504395
19.920590573654504        50.800000000000004       46.052956935246776       293.2130941769073        1.6000293827385956       45394.73854122124        0.5394364161843641
14.35898504933312         50.800000000000004       45.50083465987096        293.20569379729346       1.600079591654981        45395.8492174762         0.539463230078267
10.88571428571428         50.80000000000001        50.80000000000001        293.21096850053976       1.6000329097087815       45393.422453034465       0.5394246874079798
7.4169999317132325        50.800000000000004       44.909907943956696       293.2041166253615        1.6000914410469778       45396.17000807562        0.5394699440479328
11.885893037284077        46.853052439468826       47.399997537587815       293.2069283410071        1.600069875842581        45396.55720980536        0.5394693720930474
14.305069237792331        45.41163842324385        50.800000000000004       293.20508060214377       1.6000567618288313       45393.155749775426       0.5394323502973773
18.724467844765588        39.441910819889415       50.800000000000004       293.2047839569661        1.600041601013128        45392.82736953581        0.5394289937286308
25.4                      43.542857142857144       50.8                     293.2110540110311        1.5999973257385613       45389.95443670736        0.5393833185479507
25.4                      36.28571428571429        50.800000000000004       293.2087313528196        1.5999605644931494       45386.97826550005        0.5393522242098517
19.545414041408378        37.45515911514514        46.47568191924633        293.2048677470569        1.6001120585778992       45399.542200005606       0.5395086357319202
25.4                      50.8                     43.54285714285714        293.2140722447091        1.600016958375038        45393.57009373047        0.5394207319064338
25.4                      46.17377556534182        45.61096655346685        293.21112555672397       1.60002960082079         45392.5722319378         0.5394142950232339
20.47085983347669         46.88427080399068        42.81429960516365        293.20855957078135       1.6000631256133024       45396.93579068748        0.5394708696572686
18.751655736607706        50.800000000000004       39.65390080321468        293.2024072700024        1.6001012868984927       45396.27700712858        0.5394743606721067
18.235173313156913        43.12504106497838        45.151580297931886       293.2091881766674        1.6000609734806583       45399.27119383518        0.5394974656131523
10.94929668111799         50.800000000000004       38.93645017525895        293.1929761612306        1.600160442675639        45396.399976140245       0.5394931752593547
14.592234997137451        46.962520532489194       42.04401523659541        293.20077113159454       1.60011323499274         45401.65685483135        0.5395413037725382
4.141365272835396         50.800000000000004       38.56980988596878        293.1916743135388        1.6001676749124025       45396.80529826962        0.5395003876407352
9.243133472834412         46.74358434644846        40.892430013839146       293.20009552048583       1.6001070904529897       45403.19189857739        0.5395607891160522
20.28327156735363         40.211850361563236       43.025662097163426       293.2062486287069        1.6000823865098903       45400.75741737658        0.5395205359192757
25.400000000000002        39.80929816335517        44.10950148688885        293.2007628650302        1.6000678499682963       45392.63797732493        0.5394341410222062
0.4145850898667656        50.800000000000004       44.861325949770894       293.20614657083075       1.6000738852330632       45395.54583640755        0.5394587917962443
3.9964309261065463        47.186272314550905       42.69700740608923        293.1993568112994        1.600123890487336        45399.12813453748        0.5395138555953811
3.6285714285714237        50.8                     50.8                     293.2124419219952        1.6000227106115665       45393.167980392274       0.5394189527803646
3.851496579377697         43.572544629101806       46.824204926209674       293.20543332912354       1.6000801947568744       45397.20300828936        0.539479797145616
7.189424155906143         44.657543095152          50.800000000000004       293.20514177441913       1.6000581133646499       45392.628366952835       0.5394259705691661
10.037747972380007        43.781823987044824       47.399997537587815       293.2048571417806        1.6000812662350623       45397.535258343916       0.5394848056135538
25.400000000000002        32.12518886626501        44.436874990353445       293.18779675900174       1.6001057193165014       45390.204547802736       0.5394290777547102
12.88607178885387         42.90610487893765        43.999995075175626       293.2014968296505        1.60011932465293         45403.11525720454        0.5395572995888819
10.78559450474949         38.92415710351039        50.800000000000004       293.19841301714007       1.6000783465853017       45394.31993132724        0.5394584523921475
15.332720476102331        37.00714634827346        45.151580297931886       293.2013503018846        1.600132897385514        45406.14405791308        0.5395935626302624
14.023182765606906        33.751246469548406       50.800000000000004       293.1911401635231        1.6001043990476422       45395.15488262567        0.5394817567809722
19.264455173743755        31.935062040871006       50.800000000000004       293.1905542647472        1.6000554407500023       45390.798564188175       0.5394310637147407
19.815407705897464        33.701734725635944       46.47568191924633        293.1986413399681        1.600155891674194        45401.7710728529         0.5395465803411627
20.366360238051165        35.468407410400864       42.15136383849265        293.19642743868536       1.600161181000985        45405.146105376894       0.5395907630011804
25.399999999999995        29.028571428571432       50.800000000000004       293.2035301158113        1.5998156125429774       45382.20076953951        0.5393050179956765
21.367615289976094        30.189328922207782       45.30680218411583        293.1902273322418        1.6002069724660548       45406.45316121065        0.5396177070154804
21.02112909329888         42.96854160798133        39.57564227508053        293.20409763783283       1.6000955093104094       45400.78540233848        0.5395248264879863
25.400000000000002        45.674036988964154       39.64812395429728        293.2049209272135        1.6000624617482515       45393.42880504543        0.539435888934827
25.400000000000002        50.800000000000004       36.285714285714285       293.2115557208662        1.6000293802288308       45393.34688562487        0.5394227091018441
14.160489125917573        50.800000000000004       33.94912552128398        293.1898735951921        1.6001763436000225       45397.0643200229         0.5395067794135573
19.76849985907505         50.800000000000004       31.99559422339182        293.20114651800884       1.6001078316045676       45396.54443703128        0.5394798584503474
18.205379022836404        45.53152311349926        35.7493774096278         293.19892020304354       1.6001333393828878       45401.20387274414        0.5395393266765978
7.730829471478173         50.800000000000004       32.07583203054011        293.1764889907771        1.6002740562605482       45399.01485430064        0.5395545914722664
12.699432405542028        47.31982870578276        36.20977149600052        293.1867238416641        1.6001950109891858       45399.158828461805       0.5395374672021299
13.984613002993946        50.800000000000004       28.259800049352815       293.18290562247506       1.600225656957753        45397.91758163028        0.5395297422307958
18.753810096786303        46.143344758999774       31.476769644991418       293.1962251056465        1.6001487310115874       45399.717804179054       0.5395266258711391
3.779591269503927         38.30367236917439        50.800000000000004       293.19986762103747       1.6000402055123468       45390.69100798747        0.5394126507665512
5.658280767027378         40.495420531035656       46.824204926209674       293.20217901864095       1.6001007266237939       45401.581435371656       0.5395378167630291
0.7171198026401754        50.800000000000004       32.61050868008083        293.1846150621811        1.600217914281111        45397.363653422064       0.5395200133539693
5.902051924221695         46.472334729935916       38.091666636889315       293.18684763172035       1.6001996962235503       45402.293258232756       0.5395744899021628
25.400000000000002        28.469715113147277       38.83847377781747        293.15358445556876       1.6001993155788565       45395.73561794905        0.5395577718410351
21.60533131499416         32.02359310530986        40.93777112757866        293.1902125527683        1.6001651249141235       45412.07887778935        0.5396845911553727
25.400000000000002        33.92966847252827        39.15114737905341        293.17768770758937       1.6001722601341926       45393.97196930792        0.5394924523608229
21.781124091691535        35.895143071738026       36.109661137698204       293.1928584928792        1.6001790991466176       45405.90276063433        0.5396063234063084
21.60533131499416         29.183511463865447       34.491155435433          293.18313454815166       1.6002600776398404       45423.99062187634        0.5398391847164757
25.400000000000002        39.42633288924405        35.88856833143817        293.1906734102327        1.6001314102545359       45392.24637064187        0.5394480504454436
-6.361785333557547        50.800000000000004       44.59073530092079        293.20853055099127       1.6000589494928323       45395.213706587565       0.5394504587992064
-3.6285714285714357       50.80000000000001        50.80000000000001        293.2154211950604        1.6000056962431832       45393.3264746928         0.5394153553181201
-0.029602275808772595     45.497513844051724       46.62225663587214        293.20848734447003       1.6000575246552624       45395.3780100758         0.5394524907792664
-14.08418679346109        50.800000000000004       44.13123112216057        293.20681169053125       1.6000701968507556       45395.505238141406       0.5394570856215466
-10.88571428571429        50.800000000000004       50.800000000000004       293.2124979579901        1.6000250804119598       45393.71157788818        0.5394253094024913
-6.499843446945869        45.759009706489394       46.54869683854437        293.2105155097843        1.6000478828578621       45395.86680806105        0.5394545678877111
-2.823712030816356        50.800000000000004       38.68629507399836        293.1945168728385        1.6001524460547583       45396.83838939062        0.5394955503682441
-0.22522744582211063      46.537107122796755       42.44451327174427        293.2005529068475        1.6001172738085          45399.77862186172        0.539519384903629
-8.53045338010206         50.800000000000004       39.18093705731865        293.19727617372786       1.6001313001871544       45396.076271104735       0.539481416215919
-6.18512672712137         47.07844673171446        42.297393677088735       293.2020299082188        1.600102587013573        45397.65110733127        0.53949138436936
-0.00838010645309405      47.05119185860593        36.76486232550658        293.18838290725586       1.6001889809698178       45400.24307095666        0.539547299516555
1.4572756439964705        40.28894330738395        45.413850296858826       293.20160904967247       1.6001187945840385       45401.04431619518        0.5395324826327675
0.16602289420456542       44.45792056530667        50.800000000000004       293.2070643542233        1.600035647259762        45391.468416475414       0.5394086492649127
-3.839800074140678        43.35689346342892        45.413850296858826       293.20641763399897       1.6000701236704853       45397.0315498612         0.539475948564369
-6.814560166770368        44.439572681264316       50.800000000000004       293.2082517045659        1.6000358745574843       45392.32087836725        0.5394165950967098
-9.179617058278472        44.06453468275897        47.18355910649406        293.20985143935326       1.6000514340828145       45396.43733912217        0.53946256949107
-25.400000000000006       50.800000000000004       50.800000000000004       293.21953085729655       1.5999819612104984       45393.202348757215       0.5394063200759699
-18.142857142857146       50.8                     50.8                     293.21390181443144       1.60001686353626         45393.604203213814       0.5394214507741196
-20.77649666639004        45.61099627329422        50.800000000000004       293.21803324839726       1.5999842100149535       45392.626756946214       0.5394022353112601
-20.539897417548772       50.800000000000004       45.22269835885899        293.2123250701348        1.6000344883888855       45394.967274774346       0.5394405492480817
-3.1862958696422834       38.81141067298837        50.800000000000004       293.2010093044682        1.600054519932122        45391.16606050451        0.5394161957637796
25.400000000000002        25.386803271964844       44.56961969625081        293.17682406716665       1.5999274171983966       45392.182441808385       0.5394727735885204
9.35066270241986          34.471638448652044       45.65990383889299        293.1915183946403        1.600197003684203        45414.03652011401        0.5397054522999665
7.533349910167333         31.932422866035058       50.800000000000004       293.1884044640864        1.600074883600331        45389.241026741256       0.5394165089423721
19.29472280974157         24.95503108276343        50.800000000000004       293.17980963254917       1.59996682873518         45400.269144385864       0.5395633870343398
14.067113049202224        31.388483780749795       46.32539400759124        293.1873653034908        1.6002468410531947       45418.824852357844       0.5397700032753855
13.744146632050306        28.388352360149494       50.800000000000004       293.1699633647517        1.6001248806299382       45392.51916014903        0.5394894001103543
17.335230579952185        28.253468978150547       46.17672937787822        293.1862385337546        1.6002567394154277       45425.98771104941        0.5398572034537477
25.400000000000002        21.771428571428576       50.80000000000001        293.19299698247755       1.5993397698637364       45378.15873315557        0.5392763570832705
20.603348110702143        25.1184541755513         46.02806474816518        293.19553931129406       1.6001968675048164       45426.1144364213         0.5398415840485384
21.91197341166271         25.28187726833917        41.25612949633034        293.17986364391226       1.6002303623359517       45432.76448285914        0.5399494811947781
25.4                      50.8                     29.028571428571432       293.2105492461076        1.6000328092987748       45392.95320285897        0.5394198824586159
25.400000000000002        44.70387132735931        32.517083377356634       293.2001926897866        1.600090009060742        45393.089841797046       0.5394405598879131
20.38655708049824         39.3027379403693         32.74939955529741        293.19465024631086       1.6001836742690945       45405.26599685926        0.539595458506179
7.8076729223368435        45.75839714532093        33.4863258676894         293.17496309063586       1.6002808824372279       45404.020799665006       0.5396168942848175
12.342161320083862        44.93103815116475        32.70426798496986        293.1805041889954        1.600234293264617        45402.272308341024       0.5395859155040915
14.811082957242856        45.28792594229147        29.26119727756236        293.17875331065164       1.600258792684435        45402.203122728046       0.5395883156931659
19.302241170736202        46.75516640450029        27.204161880355034       293.1986417356947        1.6001368103928537       45398.203175858354       0.5395041793590688
19.61249227216746         50.800000000000004       25.01918578781345        293.2012267950305        1.6001080223327204       45396.19830354327        0.5394755973908766
0.4509198529156119        32.48104605788517        50.800000000000004       293.1956513489457        1.6000454108022877       45392.26091083623        0.539439064375481
2.5645312460742145        33.836538242820424       45.65990383889299        293.19583465419686       1.6001769054788353       45407.49376417986        0.5396197533750494
25.400000000000002        24.477672092858036       32.08322609751851        293.1405383473171        1.600207041433251        45393.40141835583        0.5395540399432408
21.60533131499416         23.74358324099438        37.5953981251886         293.1623723308149        1.6003871497100368       45448.69930097312        0.5401710868505459
25.400000000000002        21.193407130600804       38.643225820690795       293.1104513763213        1.5999146365147807       45406.60915980593        0.539766429339493
21.91197341166271         21.643723277065938       41.15850551776701        293.1474500333235        1.6003816888524902       45459.85383677766        0.5403311652413414
-19.99488241048125        50.800000000000004       39.64149124766305        293.2086599637506        1.6000585578310373       45395.17440846535        0.5394497537073872
-16.47771288938175        46.90985172831945        43.67775948355031        293.2085481870599        1.600063298796838        45397.91632342452        0.5394825426851534
-13.8983699678332         50.800000000000004       36.05753701836996        293.19077630366064       1.6001734881177294       45397.383766696825       0.539508914669251
-10.037563664944319       47.24474834212682        41.37402763515338        293.199573459643         1.6001194100777802       45398.64162227655        0.5395076753358607
-6.869755238383388        50.800000000000004       32.497234245997625       293.1819424463056        1.600233851599584        45398.207718244565       0.5395349628495938
-2.113001129873416        50.800000000000004       27.381441328432906       293.1742888223469        1.6002859983609594       45398.98373723176        0.5395582708165233
-2.2147915288021003       46.615668996140016       32.12400715609543        293.1805910028809        1.6002425162419103       45400.06771022267        0.5395595550616471
-5.329643235741569        46.537107122796755       35.23434767018365        293.18179300407166       1.6002376404298924       45399.682007013456       0.5395527590569288
25.400000000000002        32.07326357634293        32.434740441179585       293.1730611136277        1.6001695752213576       45392.49942862255        0.5394834652074697
22.06111070065575         21.467338346353213       32.02086699287191        293.16845486559765       1.600262499905393        45446.66348241931        0.5401356838128364
25.400000000000002        17.80625381026785        32.051134000761614       293.1056426628102        1.5994422640186559       45438.98851202332        0.5401601973462852
17.6717578072133          27.061478062190456       30.226399382070973       293.1669504613618        1.6005096931027567       45467.939587793946       0.5403913243399595
25.400000000000002        27.518748671380365       27.253583809752783       293.15418722543563       1.6001109176690174       45389.969047521234       0.539488123137575
21.956916868388912        31.064568720876466       28.59534841078268        293.1862767775592        1.6001836226972552       45414.17829938688        0.5397167861652116
25.400000000000002        19.482162619012296       28.715294620688255       293.1690399804717        1.5986003255150723       45395.8109100954         0.539530221842555
22.07682247229505         19.301645512312135       29.46290290011405        293.1360347288601        1.6001267139266622       45479.53893230484        0.5405861909595304
25.400000000000002        22.817871760307387       28.731340669066704       293.1516561559565        1.5998347681686924       45375.33009239241        0.5393187864501292
23.433213246109574        24.48565309661644        28.362783942526853       293.1450985375439        1.6003133556104294       45414.65084339865        0.5397982171094596
25.400000000000002        38.58718895946145        28.650396499916564       293.18637509364373       1.6001553305523648       45390.68158953102        0.5394373627711361
21.742206786658958        36.23685517163392        26.912979112446575       293.1880519796368        1.6001941042284207       45401.44381174852        0.5395621784207235
18.991990069304947        42.710332809000576       29.389137972896606       293.19554762987383       1.6001644086726052       45403.26621129722        0.5395700416193955
-9.84092316668764         45.73327410965976        37.193473832474986       293.19229765955083       1.600157973166908        45402.205204640406       0.5395634135439002
-16.645446289652288       43.56266815620531        47.012143922470024       293.2086554799461        1.6000623948516584       45398.72428796277        0.5394919466531458
-4.175509660167973        38.77268433567106        45.847276771129614       293.204193819797         1.6000831040241503       45398.418449800934       0.5394965215929086
-8.680774710512964        39.154437772975136       50.800000000000004       293.20280784014534       1.600052083492142        45392.235650831404       0.5394255975710526
-7.860091804977276        41.231090509962335       44.70719749205887        293.20585537204255       1.6000871074715446       45400.31371212216        0.539515986756056
-11.527200980967136       39.30944478587042        46.5982488860023         293.20787334725367       1.600076844142905        45401.206671508626       0.5395228850253174
-14.419653594002162       44.10563285577174        50.800000000000004       293.20774716875064       1.600046801609074        45393.6902415376         0.5394337960584357
-25.400000000000006       50.8                     43.54285714285714        293.2135888075215        1.6000179996654527       45393.81038878083        0.5394244767568336
-19.433060697891825       46.90985172831945        41.432889546301546       293.2096214754169        1.6000604689659896       45397.66836994213        0.5394776213945746
-25.400000000000006       46.14292306686765        45.54477309300126        293.21248889071603       1.6000276424077349       45393.40428395669        0.53942167442961
-20.27860702318276        39.65657592794184        50.800000000000004       293.2288915174098        1.5998888351463025       45390.58913161733        0.5393580489613684
-22.135619492651205       43.281280299748026       47.012143922470024       293.2109592628965        1.600046850478897        45394.39768525833        0.5394362934022011
-25.400000000000006       43.542857142857144       50.8                     293.2220721439525        1.5999526851380568       45392.49539457501        0.5393932445218496
-6.858929258950911        32.49143851769494        50.800000000000004       293.1912848220141        1.6000615692563542       45389.96486556683        0.5394198118164085
-4.511219246195267        34.1884752079132         46.2807032454004         293.20227931939104       1.6001079889359795       45403.85352697598        0.5395646329919347
25.400000000000002        18.142857142857157       44.55855491492556        293.1569892900708        1.5993590857958007       45406.40801935725        0.5396783521580613
25.400000000000002        14.334503305968427       38.540682284132046       293.0382666484974        1.5986545749158705       45438.506441973375       0.5402786602180443
-0.5346780499912253       28.518077924280902       44.42437719188555        293.20126486002914       1.600159097794612        45421.59667640227        0.5397773544026818
-2.3708404432792127       27.521464710399687       50.800000000000004       293.19671827369353       1.599914822014821        45388.968565791976       0.5393979754899069
25.4                      14.514285714285723       50.800000000000004       293.10169879024534       1.5974469301663414       45389.78480059758        0.5395825439893059
19.789694751884785        15.870901443893745       45.91430291487142        293.2297584343133        1.5997731347595687       45527.08112072538        0.5409783287975943
20.196521431293462        20.49467780972252        45.971183831518296       293.1821003474206        1.6004444430605111       45439.9246252575         0.5400304565490922
19.037231016662528        17.894319495674164       50.800000000000004       293.15716049418324       1.5995076716910013       45416.494715540735       0.5397979224515411
19.158554914925553        10.885714285714295       50.800000000000004       293.1358623820624        1.5978177450486024       45474.99423654714        0.5405324888692126
4.123766421899332         27.944263129449183       46.814476724177545       293.18786486313365       1.6002584526249735       45412.487719866716       0.5396937714424788
10.490127723378718        29.64093275364478        45.78293060991007        293.18027791711097       1.6002752712606376       45428.73069995084        0.539900778466846
3.4247940358113795        26.21744912818909        50.800000000000004       293.19383166092774       1.5998900469227941       45383.3369597239         0.5393363599790673
8.814983046397613         25.58610463855206        50.800000000000004       293.17650943255205       1.5999049430097225       45384.11780713625        0.5393775066258887
19.297367134318048        17.192605672297613       41.676222600285215       293.1550362646486        1.6004832734375511       45590.88579248285        0.5418745747133576
15.730903526011975        21.80232346544411        47.23689260742161        293.1665705530177        1.6003283498646477       45463.75741218627        0.5403423189528697
13.037860228698529        21.510607507357165       50.800000000000004       293.1729368943315        1.5998305153800156       45404.628124958195       0.5396278416996612
11.629592744337577        24.81022705863752        45.905957380927155       293.1820268571671        1.600277868310713        45462.821317243266       0.5403027075544332
3.5063913743735933        50.800000000000004       26.272814981157882       293.1678807236239        1.6003321490636209       45399.95983566681        0.5395816655434371
0.9000601781373687        46.69423086948327        29.013666642007212       293.1724466130033        1.6003023418913862       45402.921148092944       0.539608456913698
25.400000000000002        44.55855491492555        25.399999999999995       293.19781023608004       1.6000962015201166       45391.707581127484       0.5394285166632289
18.991990069304947        39.743083074826515       23.963253327449067       293.19221097495125       1.6001924473317242       45406.195967987485       0.5396109996327746
25.400000000000006        50.80000000000001        21.771428571428572       293.21052119674476       1.6000363818718706       45392.81581681525        0.5394183014558928
6.478943617331323         44.33055318883023        29.659158560311926       293.1693592911625        1.6003250193097331       45409.00032169887        0.5396863904828729
10.63017584518077         47.86551907558238        29.133256582228114       293.1800683879546        1.6002468152343308       45405.36383491265        0.5396234590579608
8.918190370277674         50.800000000000004       25.562245179486364       293.17754990761847       1.6002633007722074       45398.04373583063        0.5395410975652359
16.75294800548273         44.9679907765176         25.11609322119094        293.1857110212387        1.600197485992186        45401.40462146551        0.5395660208354853
12.739718314590172        47.28769121077082        24.259120047085933       293.1749387596355        1.6002724227520013       45405.468031191136       0.5396341391011655
13.540292803664151        50.800000000000004       21.298555613164556       293.1706483780357        1.6003151588248523       45399.5923896915         0.5395722045856024
18.6948130537226          44.64805561074372        20.970989164819525       293.1920530599445        1.6001848569179056       45401.28148376277        0.539552886100839
19.3152172648034          50.800000000000004       17.541027814638955       293.1911631383347        1.6001721315670887       45397.66098117967        0.5395114972960878
18.805039516751307        18.51430990070148        37.438142285699016       293.1020424793462        1.6007214040615825       45553.825008478736       0.5415319784425858
25.399999999999995        7.2571428571428624       50.8                     296.81994103024766       1.5489476906917228       47399.03650687639        0.5564095078415219